M 0.0 nn 3 x 670 y 670 rp  DSDV
M 0.0 sc scen-test cp none seed 0.0
M 0.0 prop Propagation/TwoRayGround ant Antenna/OmniAntenna
M 33.00000 4194305 (83.36, 239.44, 0.00), (89.66, 283.49), 19.15
M 50.00000 4194307 (591.26, 199.37, 0.00), (369.46, 170.52), 3.37
M 51.00000 4194306 (257.05, 345.36, 0.00), (221.83, 80.86), 14.91
s 160.000000000 _3_ AGT  --- 64 tcp 40 [0 0 0 0] ------- [4194305:0 0:0 32 0] [0 0] 0 0
+ 160.010549 2 1 tcp 60 ------- 1 1.0.1.0 0.0.0.0 0 64
- 160.010549 2 1 tcp 60 ------- 1 1.0.1.0 0.0.0.0 0 64
r 160.012645 2 1 tcp 60 ------- 1 1.0.1.0 0.0.0.0 0 64
+ 160.012645 1 0 tcp 60 ------- 1 1.0.1.0 0.0.0.0 0 64
- 160.012645 1 0 tcp 60 ------- 1 1.0.1.0 0.0.0.0 0 64
r 160.014741 1 0 tcp 60 ------- 1 1.0.1.0 0.0.0.0 0 64
+ 160.014741 0 1 ack 40 ------- 1 0.0.0.0 1.0.1.0 0 65
- 160.014741 0 1 ack 40 ------- 1 0.0.0.0 1.0.1.0 0 65
r 160.016805 0 1 ack 40 ------- 1 0.0.0.0 1.0.1.0 0 65
+ 160.016805 1 2 ack 40 ------- 1 0.0.0.0 1.0.1.0 0 65
- 160.016805 1 2 ack 40 ------- 1 0.0.0.0 1.0.1.0 0 65
r 160.018869 1 2 ack 40 ------- 1 0.0.0.0 1.0.1.0 0 65
r 160.023161880 _3_ AGT  --- 65 ack 40 [13a 1 2 800] ------- [0:0 4194305:0 28 4194305] [0 0] 2 0
s 160.023161880 _3_ AGT  --- 66 tcp 1040 [0 0 0 0] ------- [4194305:0 0:0 32 0] [1 0] 0 0
s 160.023161880 _3_ AGT  --- 67 tcp 1040 [0 0 0 0] ------- [4194305:0 0:0 32 0] [2 0] 0 0
+ 160.053378 2 1 tcp 1060 ------- 1 1.0.1.0 0.0.0.0 1 66
- 160.053378 2 1 tcp 1060 ------- 1 1.0.1.0 0.0.0.0 1 66
r 160.057074 2 1 tcp 1060 ------- 1 1.0.1.0 0.0.0.0 1 66
+ 160.057074 1 0 tcp 1060 ------- 1 1.0.1.0 0.0.0.0 1 66
- 160.057074 1 0 tcp 1060 ------- 1 1.0.1.0 0.0.0.0 1 66
r 160.06077 1 0 tcp 1060 ------- 1 1.0.1.0 0.0.0.0 1 66
+ 160.06077 0 1 ack 40 ------- 1 0.0.0.0 1.0.1.0 1 68
- 160.06077 0 1 ack 40 ------- 1 0.0.0.0 1.0.1.0 1 68
r 160.062834 0 1 ack 40 ------- 1 0.0.0.0 1.0.1.0 1 68
+ 160.062834 1 2 ack 40 ------- 1 0.0.0.0 1.0.1.0 1 68
- 160.062834 1 2 ack 40 ------- 1 0.0.0.0 1.0.1.0 1 68
+ 160.063797 2 1 tcp 1060 ------- 1 1.0.1.0 0.0.0.0 2 67
- 160.063797 2 1 tcp 1060 ------- 1 1.0.1.0 0.0.0.0 2 67
r 160.064898 1 2 ack 40 ------- 1 0.0.0.0 1.0.1.0 1 68
r 160.067493 2 1 tcp 1060 ------- 1 1.0.1.0 0.0.0.0 2 67
+ 160.067493 1 0 tcp 1060 ------- 1 1.0.1.0 0.0.0.0 2 67
- 160.067493 1 0 tcp 1060 ------- 1 1.0.1.0 0.0.0.0 2 67
r 160.068330634 _3_ AGT  --- 68 ack 40 [13a 1 2 800] ------- [0:0 4194305:0 28 4194305] [1 0] 2 0
s 160.068330634 _3_ AGT  --- 69 tcp 1040 [0 0 0 0] ------- [4194305:0 0:0 32 0] [3 0] 0 0
s 160.068330634 _3_ AGT  --- 70 tcp 1040 [0 0 0 0] ------- [4194305:0 0:0 32 0] [4 0] 0 0
r 160.071189 1 0 tcp 1060 ------- 1 1.0.1.0 0.0.0.0 2 67
+ 160.071189 0 1 ack 40 ------- 1 0.0.0.0 1.0.1.0 2 71
- 160.071189 0 1 ack 40 ------- 1 0.0.0.0 1.0.1.0 2 71
r 160.073253 0 1 ack 40 ------- 1 0.0.0.0 1.0.1.0 2 71
+ 160.073253 1 2 ack 40 ------- 1 0.0.0.0 1.0.1.0 2 71
- 160.073253 1 2 ack 40 ------- 1 0.0.0.0 1.0.1.0 2 71
r 160.075317 1 2 ack 40 ------- 1 0.0.0.0 1.0.1.0 2 71
+ 160.098487 2 1 tcp 1060 ------- 1 1.0.1.0 0.0.0.0 3 69
- 160.098487 2 1 tcp 1060 ------- 1 1.0.1.0 0.0.0.0 3 69
r 160.102183 2 1 tcp 1060 ------- 1 1.0.1.0 0.0.0.0 3 69
+ 160.102183 1 0 tcp 1060 ------- 1 1.0.1.0 0.0.0.0 3 69
- 160.102183 1 0 tcp 1060 ------- 1 1.0.1.0 0.0.0.0 3 69
r 160.105879 1 0 tcp 1060 ------- 1 1.0.1.0 0.0.0.0 3 69
+ 160.105879 0 1 ack 40 ------- 1 0.0.0.0 1.0.1.0 3 72
- 160.105879 0 1 ack 40 ------- 1 0.0.0.0 1.0.1.0 3 72
r 160.107943 0 1 ack 40 ------- 1 0.0.0.0 1.0.1.0 3 72
+ 160.107943 1 2 ack 40 ------- 1 0.0.0.0 1.0.1.0 3 72
- 160.107943 1 2 ack 40 ------- 1 0.0.0.0 1.0.1.0 3 72
r 160.110007 1 2 ack 40 ------- 1 0.0.0.0 1.0.1.0 3 72
+ 160.110403 2 1 tcp 1060 ------- 1 1.0.1.0 0.0.0.0 4 70
- 160.110403 2 1 tcp 1060 ------- 1 1.0.1.0 0.0.0.0 4 70
r 160.114099 2 1 tcp 1060 ------- 1 1.0.1.0 0.0.0.0 4 70
+ 160.114099 1 0 tcp 1060 ------- 1 1.0.1.0 0.0.0.0 4 70
- 160.114099 1 0 tcp 1060 ------- 1 1.0.1.0 0.0.0.0 4 70
r 160.114180078 _3_ AGT  --- 71 ack 40 [13a 1 2 800] ------- [0:0 4194305:0 28 4194305] [2 0] 2 0
s 160.114180078 _3_ AGT  --- 73 tcp 1040 [0 0 0 0] ------- [4194305:0 0:0 32 0] [5 0] 0 0
s 160.114180078 _3_ AGT  --- 74 tcp 1040 [0 0 0 0] ------- [4194305:0 0:0 32 0] [6 0] 0 0
r 160.117795 1 0 tcp 1060 ------- 1 1.0.1.0 0.0.0.0 4 70
+ 160.117795 0 1 ack 40 ------- 1 0.0.0.0 1.0.1.0 4 75
- 160.117795 0 1 ack 40 ------- 1 0.0.0.0 1.0.1.0 4 75
r 160.119859 0 1 ack 40 ------- 1 0.0.0.0 1.0.1.0 4 75
+ 160.119859 1 2 ack 40 ------- 1 0.0.0.0 1.0.1.0 4 75
- 160.119859 1 2 ack 40 ------- 1 0.0.0.0 1.0.1.0 4 75
r 160.121923 1 2 ack 40 ------- 1 0.0.0.0 1.0.1.0 4 75
r 160.126236917 _3_ AGT  --- 72 ack 40 [13a 1 2 800] ------- [0:0 4194305:0 28 4194305] [3 0] 2 0
s 160.126236917 _3_ AGT  --- 76 tcp 1040 [0 0 0 0] ------- [4194305:0 0:0 32 0] [7 0] 0 0
s 160.126236917 _3_ AGT  --- 77 tcp 1040 [0 0 0 0] ------- [4194305:0 0:0 32 0] [8 0] 0 0
+ 160.146414 2 1 tcp 1060 ------- 1 1.0.1.0 0.0.0.0 5 73
- 160.146414 2 1 tcp 1060 ------- 1 1.0.1.0 0.0.0.0 5 73
r 160.15011 2 1 tcp 1060 ------- 1 1.0.1.0 0.0.0.0 5 73
+ 160.15011 1 0 tcp 1060 ------- 1 1.0.1.0 0.0.0.0 5 73
- 160.15011 1 0 tcp 1060 ------- 1 1.0.1.0 0.0.0.0 5 73
r 160.153806 1 0 tcp 1060 ------- 1 1.0.1.0 0.0.0.0 5 73
+ 160.153806 0 1 ack 40 ------- 1 0.0.0.0 1.0.1.0 5 78
- 160.153806 0 1 ack 40 ------- 1 0.0.0.0 1.0.1.0 5 78
r 160.15587 0 1 ack 40 ------- 1 0.0.0.0 1.0.1.0 5 78
+ 160.15587 1 2 ack 40 ------- 1 0.0.0.0 1.0.1.0 5 78
- 160.15587 1 2 ack 40 ------- 1 0.0.0.0 1.0.1.0 5 78
r 160.157934 1 2 ack 40 ------- 1 0.0.0.0 1.0.1.0 5 78
+ 160.15851 2 1 tcp 1060 ------- 1 1.0.1.0 0.0.0.0 6 74
- 160.15851 2 1 tcp 1060 ------- 1 1.0.1.0 0.0.0.0 6 74
r 160.160489571 _3_ AGT  --- 75 ack 40 [13a 1 2 800] ------- [0:0 4194305:0 28 4194305] [4 0] 2 0
s 160.160489571 _3_ AGT  --- 79 tcp 1040 [0 0 0 0] ------- [4194305:0 0:0 32 0] [9 0] 0 0
s 160.160489571 _3_ AGT  --- 80 tcp 1040 [0 0 0 0] ------- [4194305:0 0:0 32 0] [10 0] 0 0
r 160.162206 2 1 tcp 1060 ------- 1 1.0.1.0 0.0.0.0 6 74
+ 160.162206 1 0 tcp 1060 ------- 1 1.0.1.0 0.0.0.0 6 74
- 160.162206 1 0 tcp 1060 ------- 1 1.0.1.0 0.0.0.0 6 74
r 160.165902 1 0 tcp 1060 ------- 1 1.0.1.0 0.0.0.0 6 74
+ 160.165902 0 1 ack 40 ------- 1 0.0.0.0 1.0.1.0 6 81
- 160.165902 0 1 ack 40 ------- 1 0.0.0.0 1.0.1.0 6 81
r 160.167966 0 1 ack 40 ------- 1 0.0.0.0 1.0.1.0 6 81
+ 160.167966 1 2 ack 40 ------- 1 0.0.0.0 1.0.1.0 6 81
- 160.167966 1 2 ack 40 ------- 1 0.0.0.0 1.0.1.0 6 81
r 160.17003 1 2 ack 40 ------- 1 0.0.0.0 1.0.1.0 6 81
+ 160.200765 2 1 tcp 1060 ------- 1 1.0.1.0 0.0.0.0 7 76
- 160.200765 2 1 tcp 1060 ------- 1 1.0.1.0 0.0.0.0 7 76
r 160.204461 2 1 tcp 1060 ------- 1 1.0.1.0 0.0.0.0 7 76
+ 160.204461 1 0 tcp 1060 ------- 1 1.0.1.0 0.0.0.0 7 76
- 160.204461 1 0 tcp 1060 ------- 1 1.0.1.0 0.0.0.0 7 76
r 160.208157 1 0 tcp 1060 ------- 1 1.0.1.0 0.0.0.0 7 76
+ 160.208157 0 1 ack 40 ------- 1 0.0.0.0 1.0.1.0 7 82
- 160.208157 0 1 ack 40 ------- 1 0.0.0.0 1.0.1.0 7 82
r 160.210221 0 1 ack 40 ------- 1 0.0.0.0 1.0.1.0 7 82
+ 160.210221 1 2 ack 40 ------- 1 0.0.0.0 1.0.1.0 7 82
- 160.210221 1 2 ack 40 ------- 1 0.0.0.0 1.0.1.0 7 82
r 160.212285 1 2 ack 40 ------- 1 0.0.0.0 1.0.1.0 7 82
+ 160.22279 2 1 tcp 1060 ------- 1 1.0.1.0 0.0.0.0 8 77
- 160.22279 2 1 tcp 1060 ------- 1 1.0.1.0 0.0.0.0 8 77
r 160.226486 2 1 tcp 1060 ------- 1 1.0.1.0 0.0.0.0 8 77
+ 160.226486 1 0 tcp 1060 ------- 1 1.0.1.0 0.0.0.0 8 77
- 160.226486 1 0 tcp 1060 ------- 1 1.0.1.0 0.0.0.0 8 77
r 160.230182 1 0 tcp 1060 ------- 1 1.0.1.0 0.0.0.0 8 77
+ 160.230182 0 1 ack 40 ------- 1 0.0.0.0 1.0.1.0 8 83
- 160.230182 0 1 ack 40 ------- 1 0.0.0.0 1.0.1.0 8 83
r 160.232246 0 1 ack 40 ------- 1 0.0.0.0 1.0.1.0 8 83
+ 160.232246 1 2 ack 40 ------- 1 0.0.0.0 1.0.1.0 8 83
- 160.232246 1 2 ack 40 ------- 1 0.0.0.0 1.0.1.0 8 83
r 160.23431 1 2 ack 40 ------- 1 0.0.0.0 1.0.1.0 8 83
+ 160.236846 2 1 tcp 1060 ------- 1 1.0.1.0 0.0.0.0 9 79
- 160.236846 2 1 tcp 1060 ------- 1 1.0.1.0 0.0.0.0 9 79
r 160.240542 2 1 tcp 1060 ------- 1 1.0.1.0 0.0.0.0 9 79
+ 160.240542 1 0 tcp 1060 ------- 1 1.0.1.0 0.0.0.0 9 79
- 160.240542 1 0 tcp 1060 ------- 1 1.0.1.0 0.0.0.0 9 79
r 160.241002678 _3_ AGT  --- 78 ack 40 [13a 1 2 800] ------- [0:0 4194305:0 28 4194305] [5 0] 2 0
s 160.241002678 _3_ AGT  --- 84 tcp 1040 [0 0 0 0] ------- [4194305:0 0:0 32 0] [11 0] 0 0
s 160.241002678 _3_ AGT  --- 85 tcp 1040 [0 0 0 0] ------- [4194305:0 0:0 32 0] [12 0] 0 0
r 160.244238 1 0 tcp 1060 ------- 1 1.0.1.0 0.0.0.0 9 79
+ 160.244238 0 1 ack 40 ------- 1 0.0.0.0 1.0.1.0 9 86
- 160.244238 0 1 ack 40 ------- 1 0.0.0.0 1.0.1.0 9 86
r 160.246302 0 1 ack 40 ------- 1 0.0.0.0 1.0.1.0 9 86
+ 160.246302 1 2 ack 40 ------- 1 0.0.0.0 1.0.1.0 9 86
- 160.246302 1 2 ack 40 ------- 1 0.0.0.0 1.0.1.0 9 86
r 160.248366 1 2 ack 40 ------- 1 0.0.0.0 1.0.1.0 9 86
+ 160.251282 2 1 tcp 1060 ------- 1 1.0.1.0 0.0.0.0 10 80
- 160.251282 2 1 tcp 1060 ------- 1 1.0.1.0 0.0.0.0 10 80
r 160.253301030 _3_ AGT  --- 81 ack 40 [13a 1 2 800] ------- [0:0 4194305:0 28 4194305] [6 0] 2 0
s 160.253301030 _3_ AGT  --- 87 tcp 1040 [0 0 0 0] ------- [4194305:0 0:0 32 0] [13 0] 0 0
s 160.253301030 _3_ AGT  --- 88 tcp 1040 [0 0 0 0] ------- [4194305:0 0:0 32 0] [14 0] 0 0
r 160.254978 2 1 tcp 1060 ------- 1 1.0.1.0 0.0.0.0 10 80
+ 160.254978 1 0 tcp 1060 ------- 1 1.0.1.0 0.0.0.0 10 80
- 160.254978 1 0 tcp 1060 ------- 1 1.0.1.0 0.0.0.0 10 80
r 160.258674 1 0 tcp 1060 ------- 1 1.0.1.0 0.0.0.0 10 80
+ 160.258674 0 1 ack 40 ------- 1 0.0.0.0 1.0.1.0 10 89
- 160.258674 0 1 ack 40 ------- 1 0.0.0.0 1.0.1.0 10 89
r 160.260738 0 1 ack 40 ------- 1 0.0.0.0 1.0.1.0 10 89
+ 160.260738 1 2 ack 40 ------- 1 0.0.0.0 1.0.1.0 10 89
- 160.260738 1 2 ack 40 ------- 1 0.0.0.0 1.0.1.0 10 89
r 160.262802 1 2 ack 40 ------- 1 0.0.0.0 1.0.1.0 10 89
r 160.267406391 _3_ AGT  --- 82 ack 40 [13a 1 2 800] ------- [0:0 4194305:0 28 4194305] [7 0] 2 0
s 160.267406391 _3_ AGT  --- 90 tcp 1040 [0 0 0 0] ------- [4194305:0 0:0 32 0] [15 0] 0 0
s 160.267406391 _3_ AGT  --- 91 tcp 1040 [0 0 0 0] ------- [4194305:0 0:0 32 0] [16 0] 0 0
r 160.299241681 _3_ AGT  --- 83 ack 40 [13a 1 2 800] ------- [0:0 4194305:0 28 4194305] [8 0] 2 0
s 160.299241681 _3_ AGT  --- 92 tcp 1040 [0 0 0 0] ------- [4194305:0 0:0 32 0] [17 0] 0 0
s 160.299241681 _3_ AGT  --- 93 tcp 1040 [0 0 0 0] ------- [4194305:0 0:0 32 0] [18 0] 0 0
+ 160.309181 2 1 tcp 1060 ------- 1 1.0.1.0 0.0.0.0 11 84
- 160.309181 2 1 tcp 1060 ------- 1 1.0.1.0 0.0.0.0 11 84
r 160.312877 2 1 tcp 1060 ------- 1 1.0.1.0 0.0.0.0 11 84
+ 160.312877 1 0 tcp 1060 ------- 1 1.0.1.0 0.0.0.0 11 84
- 160.312877 1 0 tcp 1060 ------- 1 1.0.1.0 0.0.0.0 11 84
r 160.316573 1 0 tcp 1060 ------- 1 1.0.1.0 0.0.0.0 11 84
+ 160.316573 0 1 ack 40 ------- 1 0.0.0.0 1.0.1.0 11 94
- 160.316573 0 1 ack 40 ------- 1 0.0.0.0 1.0.1.0 11 94
r 160.318637 0 1 ack 40 ------- 1 0.0.0.0 1.0.1.0 11 94
+ 160.318637 1 2 ack 40 ------- 1 0.0.0.0 1.0.1.0 11 94
- 160.318637 1 2 ack 40 ------- 1 0.0.0.0 1.0.1.0 11 94
r 160.320701 1 2 ack 40 ------- 1 0.0.0.0 1.0.1.0 11 94
r 160.323246218 _3_ AGT  --- 86 ack 40 [13a 1 2 800] ------- [0:0 4194305:0 28 4194305] [9 0] 2 0
s 160.323246218 _3_ AGT  --- 95 tcp 1040 [0 0 0 0] ------- [4194305:0 0:0 32 0] [19 0] 0 0
s 160.323246218 _3_ AGT  --- 96 tcp 1040 [0 0 0 0] ------- [4194305:0 0:0 32 0] [20 0] 0 0
+ 160.343463 2 1 tcp 1060 ------- 1 1.0.1.0 0.0.0.0 12 85
- 160.343463 2 1 tcp 1060 ------- 1 1.0.1.0 0.0.0.0 12 85
r 160.347159 2 1 tcp 1060 ------- 1 1.0.1.0 0.0.0.0 12 85
+ 160.347159 1 0 tcp 1060 ------- 1 1.0.1.0 0.0.0.0 12 85
- 160.347159 1 0 tcp 1060 ------- 1 1.0.1.0 0.0.0.0 12 85
r 160.350855 1 0 tcp 1060 ------- 1 1.0.1.0 0.0.0.0 12 85
+ 160.350855 0 1 ack 40 ------- 1 0.0.0.0 1.0.1.0 12 97
- 160.350855 0 1 ack 40 ------- 1 0.0.0.0 1.0.1.0 12 97
r 160.352919 0 1 ack 40 ------- 1 0.0.0.0 1.0.1.0 12 97
+ 160.352919 1 2 ack 40 ------- 1 0.0.0.0 1.0.1.0 12 97
- 160.352919 1 2 ack 40 ------- 1 0.0.0.0 1.0.1.0 12 97
+ 160.353402 2 1 tcp 1060 ------- 1 1.0.1.0 0.0.0.0 13 87
- 160.353402 2 1 tcp 1060 ------- 1 1.0.1.0 0.0.0.0 13 87
r 160.354983 1 2 ack 40 ------- 1 0.0.0.0 1.0.1.0 12 97
r 160.357098 2 1 tcp 1060 ------- 1 1.0.1.0 0.0.0.0 13 87
+ 160.357098 1 0 tcp 1060 ------- 1 1.0.1.0 0.0.0.0 13 87
- 160.357098 1 0 tcp 1060 ------- 1 1.0.1.0 0.0.0.0 13 87
r 160.360794 1 0 tcp 1060 ------- 1 1.0.1.0 0.0.0.0 13 87
+ 160.360794 0 1 ack 40 ------- 1 0.0.0.0 1.0.1.0 13 98
- 160.360794 0 1 ack 40 ------- 1 0.0.0.0 1.0.1.0 13 98
r 160.362858 0 1 ack 40 ------- 1 0.0.0.0 1.0.1.0 13 98
+ 160.362858 1 2 ack 40 ------- 1 0.0.0.0 1.0.1.0 13 98
- 160.362858 1 2 ack 40 ------- 1 0.0.0.0 1.0.1.0 13 98
r 160.364922 1 2 ack 40 ------- 1 0.0.0.0 1.0.1.0 13 98
+ 160.375467 2 1 tcp 1060 ------- 1 1.0.1.0 0.0.0.0 14 88
- 160.375467 2 1 tcp 1060 ------- 1 1.0.1.0 0.0.0.0 14 88
r 160.379163 2 1 tcp 1060 ------- 1 1.0.1.0 0.0.0.0 14 88
+ 160.379163 1 0 tcp 1060 ------- 1 1.0.1.0 0.0.0.0 14 88
- 160.379163 1 0 tcp 1060 ------- 1 1.0.1.0 0.0.0.0 14 88
r 160.382859 1 0 tcp 1060 ------- 1 1.0.1.0 0.0.0.0 14 88
+ 160.382859 0 1 ack 40 ------- 1 0.0.0.0 1.0.1.0 14 99
- 160.382859 0 1 ack 40 ------- 1 0.0.0.0 1.0.1.0 14 99
r 160.384923 0 1 ack 40 ------- 1 0.0.0.0 1.0.1.0 14 99
+ 160.384923 1 2 ack 40 ------- 1 0.0.0.0 1.0.1.0 14 99
- 160.384923 1 2 ack 40 ------- 1 0.0.0.0 1.0.1.0 14 99
r 160.386987 1 2 ack 40 ------- 1 0.0.0.0 1.0.1.0 14 99
r 160.391331932 _3_ AGT  --- 89 ack 40 [13a 1 2 800] ------- [0:0 4194305:0 28 4194305] [10 0] 2 0
s 160.391331932 _3_ AGT  --- 100 tcp 1040 [0 0 0 0] ------- [4194305:0 0:0 32 0] [21 0] 0 0
s 160.391331932 _3_ AGT  --- 101 tcp 1040 [0 0 0 0] ------- [4194305:0 0:0 32 0] [22 0] 0 0
+ 160.411709 2 1 tcp 1060 ------- 1 1.0.1.0 0.0.0.0 15 90
- 160.411709 2 1 tcp 1060 ------- 1 1.0.1.0 0.0.0.0 15 90
r 160.415405 2 1 tcp 1060 ------- 1 1.0.1.0 0.0.0.0 15 90
+ 160.415405 1 0 tcp 1060 ------- 1 1.0.1.0 0.0.0.0 15 90
- 160.415405 1 0 tcp 1060 ------- 1 1.0.1.0 0.0.0.0 15 90
r 160.419101 1 0 tcp 1060 ------- 1 1.0.1.0 0.0.0.0 15 90
+ 160.419101 0 1 ack 40 ------- 1 0.0.0.0 1.0.1.0 15 102
- 160.419101 0 1 ack 40 ------- 1 0.0.0.0 1.0.1.0 15 102
r 160.421165 0 1 ack 40 ------- 1 0.0.0.0 1.0.1.0 15 102
+ 160.421165 1 2 ack 40 ------- 1 0.0.0.0 1.0.1.0 15 102
- 160.421165 1 2 ack 40 ------- 1 0.0.0.0 1.0.1.0 15 102
r 160.423229 1 2 ack 40 ------- 1 0.0.0.0 1.0.1.0 15 102
+ 160.423685 2 1 tcp 1060 ------- 1 1.0.1.0 0.0.0.0 16 91
- 160.423685 2 1 tcp 1060 ------- 1 1.0.1.0 0.0.0.0 16 91
r 160.425504586 _3_ AGT  --- 94 ack 40 [13a 1 2 800] ------- [0:0 4194305:0 28 4194305] [11 0] 2 0
s 160.425504586 _3_ AGT  --- 103 tcp 1040 [0 0 0 0] ------- [4194305:0 0:0 32 0] [23 0] 0 0
s 160.425504586 _3_ AGT  --- 104 tcp 1040 [0 0 0 0] ------- [4194305:0 0:0 32 0] [24 0] 0 0
r 160.427381 2 1 tcp 1060 ------- 1 1.0.1.0 0.0.0.0 16 91
+ 160.427381 1 0 tcp 1060 ------- 1 1.0.1.0 0.0.0.0 16 91
- 160.427381 1 0 tcp 1060 ------- 1 1.0.1.0 0.0.0.0 16 91
r 160.431077 1 0 tcp 1060 ------- 1 1.0.1.0 0.0.0.0 16 91
+ 160.431077 0 1 ack 40 ------- 1 0.0.0.0 1.0.1.0 16 105
- 160.431077 0 1 ack 40 ------- 1 0.0.0.0 1.0.1.0 16 105
r 160.433141 0 1 ack 40 ------- 1 0.0.0.0 1.0.1.0 16 105
+ 160.433141 1 2 ack 40 ------- 1 0.0.0.0 1.0.1.0 16 105
- 160.433141 1 2 ack 40 ------- 1 0.0.0.0 1.0.1.0 16 105
r 160.435205 1 2 ack 40 ------- 1 0.0.0.0 1.0.1.0 16 105
+ 160.457549 2 1 tcp 1060 ------- 1 1.0.1.0 0.0.0.0 17 92
- 160.457549 2 1 tcp 1060 ------- 1 1.0.1.0 0.0.0.0 17 92
r 160.461245 2 1 tcp 1060 ------- 1 1.0.1.0 0.0.0.0 17 92
+ 160.461245 1 0 tcp 1060 ------- 1 1.0.1.0 0.0.0.0 17 92
- 160.461245 1 0 tcp 1060 ------- 1 1.0.1.0 0.0.0.0 17 92
r 160.461245863 _3_ AGT  --- 97 ack 40 [13a 1 2 800] ------- [0:0 4194305:0 28 4194305] [12 0] 2 0
s 160.461245863 _3_ AGT  --- 106 tcp 1040 [0 0 0 0] ------- [4194305:0 0:0 32 0] [25 0] 0 0
s 160.461245863 _3_ AGT  --- 107 tcp 1040 [0 0 0 0] ------- [4194305:0 0:0 32 0] [26 0] 0 0
r 160.463065088 _3_ AGT  --- 98 ack 40 [13a 1 2 800] ------- [0:0 4194305:0 28 4194305] [13 0] 2 0
s 160.463065088 _3_ AGT  --- 108 tcp 1040 [0 0 0 0] ------- [4194305:0 0:0 32 0] [27 0] 0 0
s 160.463065088 _3_ AGT  --- 109 tcp 1040 [0 0 0 0] ------- [4194305:0 0:0 32 0] [28 0] 0 0
r 160.464941 1 0 tcp 1060 ------- 1 1.0.1.0 0.0.0.0 17 92
+ 160.464941 0 1 ack 40 ------- 1 0.0.0.0 1.0.1.0 17 110
- 160.464941 0 1 ack 40 ------- 1 0.0.0.0 1.0.1.0 17 110
r 160.467005 0 1 ack 40 ------- 1 0.0.0.0 1.0.1.0 17 110
+ 160.467005 1 2 ack 40 ------- 1 0.0.0.0 1.0.1.0 17 110
- 160.467005 1 2 ack 40 ------- 1 0.0.0.0 1.0.1.0 17 110
r 160.469069 1 2 ack 40 ------- 1 0.0.0.0 1.0.1.0 17 110
+ 160.473044 2 1 tcp 1060 ------- 1 1.0.1.0 0.0.0.0 18 93
- 160.473044 2 1 tcp 1060 ------- 1 1.0.1.0 0.0.0.0 18 93
r 160.47674 2 1 tcp 1060 ------- 1 1.0.1.0 0.0.0.0 18 93
+ 160.47674 1 0 tcp 1060 ------- 1 1.0.1.0 0.0.0.0 18 93
- 160.47674 1 0 tcp 1060 ------- 1 1.0.1.0 0.0.0.0 18 93
r 160.480436 1 0 tcp 1060 ------- 1 1.0.1.0 0.0.0.0 18 93
+ 160.480436 0 1 ack 40 ------- 1 0.0.0.0 1.0.1.0 18 111
- 160.480436 0 1 ack 40 ------- 1 0.0.0.0 1.0.1.0 18 111
r 160.4825 0 1 ack 40 ------- 1 0.0.0.0 1.0.1.0 18 111
+ 160.4825 1 2 ack 40 ------- 1 0.0.0.0 1.0.1.0 18 111
- 160.4825 1 2 ack 40 ------- 1 0.0.0.0 1.0.1.0 18 111
+ 160.483423 2 1 tcp 1060 ------- 1 1.0.1.0 0.0.0.0 19 95
- 160.483423 2 1 tcp 1060 ------- 1 1.0.1.0 0.0.0.0 19 95
r 160.484564 1 2 ack 40 ------- 1 0.0.0.0 1.0.1.0 18 111
r 160.487119 2 1 tcp 1060 ------- 1 1.0.1.0 0.0.0.0 19 95
+ 160.487119 1 0 tcp 1060 ------- 1 1.0.1.0 0.0.0.0 19 95
- 160.487119 1 0 tcp 1060 ------- 1 1.0.1.0 0.0.0.0 19 95
r 160.490815 1 0 tcp 1060 ------- 1 1.0.1.0 0.0.0.0 19 95
+ 160.490815 0 1 ack 40 ------- 1 0.0.0.0 1.0.1.0 19 112
- 160.490815 0 1 ack 40 ------- 1 0.0.0.0 1.0.1.0 19 112
r 160.492879 0 1 ack 40 ------- 1 0.0.0.0 1.0.1.0 19 112
+ 160.492879 1 2 ack 40 ------- 1 0.0.0.0 1.0.1.0 19 112
- 160.492879 1 2 ack 40 ------- 1 0.0.0.0 1.0.1.0 19 112
r 160.494943 1 2 ack 40 ------- 1 0.0.0.0 1.0.1.0 19 112
r 160.499307878 _3_ AGT  --- 99 ack 40 [13a 1 2 800] ------- [0:0 4194305:0 28 4194305] [14 0] 2 0
s 160.499307878 _3_ AGT  --- 113 tcp 1040 [0 0 0 0] ------- [4194305:0 0:0 32 0] [29 0] 0 0
s 160.499307878 _3_ AGT  --- 114 tcp 1040 [0 0 0 0] ------- [4194305:0 0:0 32 0] [30 0] 0 0
+ 160.541272 2 1 tcp 1060 ------- 1 1.0.1.0 0.0.0.0 20 96
- 160.541272 2 1 tcp 1060 ------- 1 1.0.1.0 0.0.0.0 20 96
r 160.544968 2 1 tcp 1060 ------- 1 1.0.1.0 0.0.0.0 20 96
+ 160.544968 1 0 tcp 1060 ------- 1 1.0.1.0 0.0.0.0 20 96
- 160.544968 1 0 tcp 1060 ------- 1 1.0.1.0 0.0.0.0 20 96
r 160.548664 1 0 tcp 1060 ------- 1 1.0.1.0 0.0.0.0 20 96
+ 160.548664 0 1 ack 40 ------- 1 0.0.0.0 1.0.1.0 20 116
- 160.548664 0 1 ack 40 ------- 1 0.0.0.0 1.0.1.0 20 116
r 160.550728 0 1 ack 40 ------- 1 0.0.0.0 1.0.1.0 20 116
+ 160.550728 1 2 ack 40 ------- 1 0.0.0.0 1.0.1.0 20 116
- 160.550728 1 2 ack 40 ------- 1 0.0.0.0 1.0.1.0 20 116
r 160.552792 1 2 ack 40 ------- 1 0.0.0.0 1.0.1.0 20 116
+ 160.572507 2 1 tcp 1060 ------- 1 1.0.1.0 0.0.0.0 21 100
- 160.572507 2 1 tcp 1060 ------- 1 1.0.1.0 0.0.0.0 21 100
r 160.574366395 _3_ AGT  --- 102 ack 40 [13a 1 2 800] ------- [0:0 4194305:0 28 4194305] [15 0] 2 0
s 160.574366395 _3_ AGT  --- 117 tcp 1040 [0 0 0 0] ------- [4194305:0 0:0 32 0] [31 0] 0 0
s 160.574366395 _3_ AGT  --- 118 tcp 1040 [0 0 0 0] ------- [4194305:0 0:0 32 0] [32 0] 0 0
r 160.576203 2 1 tcp 1060 ------- 1 1.0.1.0 0.0.0.0 21 100
+ 160.576203 1 0 tcp 1060 ------- 1 1.0.1.0 0.0.0.0 21 100
- 160.576203 1 0 tcp 1060 ------- 1 1.0.1.0 0.0.0.0 21 100
r 160.579899 1 0 tcp 1060 ------- 1 1.0.1.0 0.0.0.0 21 100
+ 160.579899 0 1 ack 40 ------- 1 0.0.0.0 1.0.1.0 21 119
- 160.579899 0 1 ack 40 ------- 1 0.0.0.0 1.0.1.0 21 119
r 160.581963 0 1 ack 40 ------- 1 0.0.0.0 1.0.1.0 21 119
+ 160.581963 1 2 ack 40 ------- 1 0.0.0.0 1.0.1.0 21 119
- 160.581963 1 2 ack 40 ------- 1 0.0.0.0 1.0.1.0 21 119
r 160.584027 1 2 ack 40 ------- 1 0.0.0.0 1.0.1.0 21 119
r 160.596422459 _3_ AGT  --- 105 ack 40 [13a 1 2 800] ------- [0:0 4194305:0 28 4194305] [16 0] 2 0
s 160.596422459 _3_ AGT  --- 120 tcp 1040 [0 0 0 0] ------- [4194305:0 0:0 32 0] [33 0] 0 0
s 160.596422459 _3_ AGT  --- 121 tcp 1040 [0 0 0 0] ------- [4194305:0 0:0 32 0] [34 0] 0 0
r 160.612086946 _3_ AGT  --- 110 ack 40 [13a 1 2 800] ------- [0:0 4194305:0 28 4194305] [17 0] 2 0
s 160.612086946 _3_ AGT  --- 122 tcp 1040 [0 0 0 0] ------- [4194305:0 0:0 32 0] [35 0] 0 0
s 160.612086946 _3_ AGT  --- 123 tcp 1040 [0 0 0 0] ------- [4194305:0 0:0 32 0] [36 0] 0 0
r 160.614146172 _3_ AGT  --- 111 ack 40 [13a 1 2 800] ------- [0:0 4194305:0 28 4194305] [18 0] 2 0
s 160.614146172 _3_ AGT  --- 124 tcp 1040 [0 0 0 0] ------- [4194305:0 0:0 32 0] [37 0] 0 0
s 160.614146172 _3_ AGT  --- 125 tcp 1040 [0 0 0 0] ------- [4194305:0 0:0 32 0] [38 0] 0 0
+ 160.634263 2 1 tcp 1060 ------- 1 1.0.1.0 0.0.0.0 22 101
- 160.634263 2 1 tcp 1060 ------- 1 1.0.1.0 0.0.0.0 22 101
r 160.637959 2 1 tcp 1060 ------- 1 1.0.1.0 0.0.0.0 22 101
+ 160.637959 1 0 tcp 1060 ------- 1 1.0.1.0 0.0.0.0 22 101
- 160.637959 1 0 tcp 1060 ------- 1 1.0.1.0 0.0.0.0 22 101
r 160.641655 1 0 tcp 1060 ------- 1 1.0.1.0 0.0.0.0 22 101
+ 160.641655 0 1 ack 40 ------- 1 0.0.0.0 1.0.1.0 22 126
- 160.641655 0 1 ack 40 ------- 1 0.0.0.0 1.0.1.0 22 126
r 160.643719 0 1 ack 40 ------- 1 0.0.0.0 1.0.1.0 22 126
+ 160.643719 1 2 ack 40 ------- 1 0.0.0.0 1.0.1.0 22 126
- 160.643719 1 2 ack 40 ------- 1 0.0.0.0 1.0.1.0 22 126
+ 160.644502 2 1 tcp 1060 ------- 1 1.0.1.0 0.0.0.0 23 103
- 160.644502 2 1 tcp 1060 ------- 1 1.0.1.0 0.0.0.0 23 103
r 160.645783 1 2 ack 40 ------- 1 0.0.0.0 1.0.1.0 22 126
r 160.648198 2 1 tcp 1060 ------- 1 1.0.1.0 0.0.0.0 23 103
+ 160.648198 1 0 tcp 1060 ------- 1 1.0.1.0 0.0.0.0 23 103
- 160.648198 1 0 tcp 1060 ------- 1 1.0.1.0 0.0.0.0 23 103
r 160.651894 1 0 tcp 1060 ------- 1 1.0.1.0 0.0.0.0 23 103
+ 160.651894 0 1 ack 40 ------- 1 0.0.0.0 1.0.1.0 23 127
- 160.651894 0 1 ack 40 ------- 1 0.0.0.0 1.0.1.0 23 127
r 160.653958 0 1 ack 40 ------- 1 0.0.0.0 1.0.1.0 23 127
+ 160.653958 1 2 ack 40 ------- 1 0.0.0.0 1.0.1.0 23 127
- 160.653958 1 2 ack 40 ------- 1 0.0.0.0 1.0.1.0 23 127
+ 160.654721 2 1 tcp 1060 ------- 1 1.0.1.0 0.0.0.0 24 104
- 160.654721 2 1 tcp 1060 ------- 1 1.0.1.0 0.0.0.0 24 104
r 160.656022 1 2 ack 40 ------- 1 0.0.0.0 1.0.1.0 23 127
r 160.658417 2 1 tcp 1060 ------- 1 1.0.1.0 0.0.0.0 24 104
+ 160.658417 1 0 tcp 1060 ------- 1 1.0.1.0 0.0.0.0 24 104
- 160.658417 1 0 tcp 1060 ------- 1 1.0.1.0 0.0.0.0 24 104
r 160.662113 1 0 tcp 1060 ------- 1 1.0.1.0 0.0.0.0 24 104
+ 160.662113 0 1 ack 40 ------- 1 0.0.0.0 1.0.1.0 24 128
- 160.662113 0 1 ack 40 ------- 1 0.0.0.0 1.0.1.0 24 128
r 160.664177 0 1 ack 40 ------- 1 0.0.0.0 1.0.1.0 24 128
+ 160.664177 1 2 ack 40 ------- 1 0.0.0.0 1.0.1.0 24 128
- 160.664177 1 2 ack 40 ------- 1 0.0.0.0 1.0.1.0 24 128
+ 160.66472 2 1 tcp 1060 ------- 1 1.0.1.0 0.0.0.0 25 106
- 160.66472 2 1 tcp 1060 ------- 1 1.0.1.0 0.0.0.0 25 106
r 160.666241 1 2 ack 40 ------- 1 0.0.0.0 1.0.1.0 24 128
r 160.666959516 _3_ AGT  --- 112 ack 40 [13a 1 2 800] ------- [0:0 4194305:0 28 4194305] [19 0] 2 0
s 160.666959516 _3_ AGT  --- 129 tcp 1040 [0 0 0 0] ------- [4194305:0 0:0 32 0] [39 0] 0 0
r 160.668416 2 1 tcp 1060 ------- 1 1.0.1.0 0.0.0.0 25 106
+ 160.668416 1 0 tcp 1060 ------- 1 1.0.1.0 0.0.0.0 25 106
- 160.668416 1 0 tcp 1060 ------- 1 1.0.1.0 0.0.0.0 25 106
r 160.672112 1 0 tcp 1060 ------- 1 1.0.1.0 0.0.0.0 25 106
+ 160.672112 0 1 ack 40 ------- 1 0.0.0.0 1.0.1.0 25 130
- 160.672112 0 1 ack 40 ------- 1 0.0.0.0 1.0.1.0 25 130
r 160.674176 0 1 ack 40 ------- 1 0.0.0.0 1.0.1.0 25 130
+ 160.674176 1 2 ack 40 ------- 1 0.0.0.0 1.0.1.0 25 130
- 160.674176 1 2 ack 40 ------- 1 0.0.0.0 1.0.1.0 25 130
r 160.67624 1 2 ack 40 ------- 1 0.0.0.0 1.0.1.0 25 130
+ 160.676959 2 1 tcp 1060 ------- 1 1.0.1.0 0.0.0.0 26 107
- 160.676959 2 1 tcp 1060 ------- 1 1.0.1.0 0.0.0.0 26 107
r 160.680655 2 1 tcp 1060 ------- 1 1.0.1.0 0.0.0.0 26 107
+ 160.680655 1 0 tcp 1060 ------- 1 1.0.1.0 0.0.0.0 26 107
- 160.680655 1 0 tcp 1060 ------- 1 1.0.1.0 0.0.0.0 26 107
r 160.684351 1 0 tcp 1060 ------- 1 1.0.1.0 0.0.0.0 26 107
+ 160.684351 0 1 ack 40 ------- 1 0.0.0.0 1.0.1.0 26 131
- 160.684351 0 1 ack 40 ------- 1 0.0.0.0 1.0.1.0 26 131
r 160.686415 0 1 ack 40 ------- 1 0.0.0.0 1.0.1.0 26 131
+ 160.686415 1 2 ack 40 ------- 1 0.0.0.0 1.0.1.0 26 131
- 160.686415 1 2 ack 40 ------- 1 0.0.0.0 1.0.1.0 26 131
r 160.688479 1 2 ack 40 ------- 1 0.0.0.0 1.0.1.0 26 131
+ 160.688835 2 1 tcp 1060 ------- 1 1.0.1.0 0.0.0.0 27 108
- 160.688835 2 1 tcp 1060 ------- 1 1.0.1.0 0.0.0.0 27 108
r 160.692531 2 1 tcp 1060 ------- 1 1.0.1.0 0.0.0.0 27 108
+ 160.692531 1 0 tcp 1060 ------- 1 1.0.1.0 0.0.0.0 27 108
- 160.692531 1 0 tcp 1060 ------- 1 1.0.1.0 0.0.0.0 27 108
r 160.696227 1 0 tcp 1060 ------- 1 1.0.1.0 0.0.0.0 27 108
+ 160.696227 0 1 ack 40 ------- 1 0.0.0.0 1.0.1.0 27 132
- 160.696227 0 1 ack 40 ------- 1 0.0.0.0 1.0.1.0 27 132
r 160.698291 0 1 ack 40 ------- 1 0.0.0.0 1.0.1.0 27 132
+ 160.698291 1 2 ack 40 ------- 1 0.0.0.0 1.0.1.0 27 132
- 160.698291 1 2 ack 40 ------- 1 0.0.0.0 1.0.1.0 27 132
r 160.700355 1 2 ack 40 ------- 1 0.0.0.0 1.0.1.0 27 132
+ 160.71282 2 1 tcp 1060 ------- 1 1.0.1.0 0.0.0.0 28 109
- 160.71282 2 1 tcp 1060 ------- 1 1.0.1.0 0.0.0.0 28 109
r 160.716516 2 1 tcp 1060 ------- 1 1.0.1.0 0.0.0.0 28 109
+ 160.716516 1 0 tcp 1060 ------- 1 1.0.1.0 0.0.0.0 28 109
- 160.716516 1 0 tcp 1060 ------- 1 1.0.1.0 0.0.0.0 28 109
r 160.720212 1 0 tcp 1060 ------- 1 1.0.1.0 0.0.0.0 28 109
+ 160.720212 0 1 ack 40 ------- 1 0.0.0.0 1.0.1.0 28 133
- 160.720212 0 1 ack 40 ------- 1 0.0.0.0 1.0.1.0 28 133
r 160.722276 0 1 ack 40 ------- 1 0.0.0.0 1.0.1.0 28 133
+ 160.722276 1 2 ack 40 ------- 1 0.0.0.0 1.0.1.0 28 133
- 160.722276 1 2 ack 40 ------- 1 0.0.0.0 1.0.1.0 28 133
+ 160.723179 2 1 tcp 1060 ------- 1 1.0.1.0 0.0.0.0 29 113
- 160.723179 2 1 tcp 1060 ------- 1 1.0.1.0 0.0.0.0 29 113
r 160.72434 1 2 ack 40 ------- 1 0.0.0.0 1.0.1.0 28 133
r 160.726875 2 1 tcp 1060 ------- 1 1.0.1.0 0.0.0.0 29 113
+ 160.726875 1 0 tcp 1060 ------- 1 1.0.1.0 0.0.0.0 29 113
- 160.726875 1 0 tcp 1060 ------- 1 1.0.1.0 0.0.0.0 29 113
r 160.730571 1 0 tcp 1060 ------- 1 1.0.1.0 0.0.0.0 29 113
+ 160.730571 0 1 ack 40 ------- 1 0.0.0.0 1.0.1.0 29 134
- 160.730571 0 1 ack 40 ------- 1 0.0.0.0 1.0.1.0 29 134
r 160.732635 0 1 ack 40 ------- 1 0.0.0.0 1.0.1.0 29 134
+ 160.732635 1 2 ack 40 ------- 1 0.0.0.0 1.0.1.0 29 134
- 160.732635 1 2 ack 40 ------- 1 0.0.0.0 1.0.1.0 29 134
r 160.734699 1 2 ack 40 ------- 1 0.0.0.0 1.0.1.0 29 134
+ 160.740653 2 1 tcp 1060 ------- 1 1.0.1.0 0.0.0.0 30 114
- 160.740653 2 1 tcp 1060 ------- 1 1.0.1.0 0.0.0.0 30 114
r 160.742472191 _3_ AGT  --- 116 ack 40 [13a 1 2 800] ------- [0:0 4194305:0 28 4194305] [20 0] 2 0
s 160.742472191 _3_ AGT  --- 135 tcp 1040 [0 0 0 0] ------- [4194305:0 0:0 32 0] [40 0] 0 0
r 160.744349 2 1 tcp 1060 ------- 1 1.0.1.0 0.0.0.0 30 114
+ 160.744349 1 0 tcp 1060 ------- 1 1.0.1.0 0.0.0.0 30 114
- 160.744349 1 0 tcp 1060 ------- 1 1.0.1.0 0.0.0.0 30 114
r 160.748045 1 0 tcp 1060 ------- 1 1.0.1.0 0.0.0.0 30 114
+ 160.748045 0 1 ack 40 ------- 1 0.0.0.0 1.0.1.0 30 136
- 160.748045 0 1 ack 40 ------- 1 0.0.0.0 1.0.1.0 30 136
r 160.750109 0 1 ack 40 ------- 1 0.0.0.0 1.0.1.0 30 136
+ 160.750109 1 2 ack 40 ------- 1 0.0.0.0 1.0.1.0 30 136
- 160.750109 1 2 ack 40 ------- 1 0.0.0.0 1.0.1.0 30 136
r 160.752173 1 2 ack 40 ------- 1 0.0.0.0 1.0.1.0 30 136
r 160.774327481 _3_ AGT  --- 119 ack 40 [13a 1 2 800] ------- [0:0 4194305:0 28 4194305] [21 0] 2 0
s 160.774327481 _3_ AGT  --- 137 tcp 1040 [0 0 0 0] ------- [4194305:0 0:0 32 0] [41 0] 0 0
+ 160.794644 2 1 tcp 1060 ------- 1 1.0.1.0 0.0.0.0 31 117
- 160.794644 2 1 tcp 1060 ------- 1 1.0.1.0 0.0.0.0 31 117
r 160.79834 2 1 tcp 1060 ------- 1 1.0.1.0 0.0.0.0 31 117
+ 160.79834 1 0 tcp 1060 ------- 1 1.0.1.0 0.0.0.0 31 117
- 160.79834 1 0 tcp 1060 ------- 1 1.0.1.0 0.0.0.0 31 117
r 160.798541009 _3_ AGT  --- 126 ack 40 [13a 1 2 800] ------- [0:0 4194305:0 28 4194305] [22 0] 2 0
s 160.798541009 _3_ AGT  --- 138 tcp 1040 [0 0 0 0] ------- [4194305:0 0:0 32 0] [42 0] 0 0
r 160.800340235 _3_ AGT  --- 127 ack 40 [13a 1 2 800] ------- [0:0 4194305:0 28 4194305] [23 0] 2 0
s 160.800340235 _3_ AGT  --- 139 tcp 1040 [0 0 0 0] ------- [4194305:0 0:0 32 0] [43 0] 0 0
r 160.802036 1 0 tcp 1060 ------- 1 1.0.1.0 0.0.0.0 31 117
+ 160.802036 0 1 ack 40 ------- 1 0.0.0.0 1.0.1.0 31 140
- 160.802036 0 1 ack 40 ------- 1 0.0.0.0 1.0.1.0 31 140
r 160.802359461 _3_ AGT  --- 128 ack 40 [13a 1 2 800] ------- [0:0 4194305:0 28 4194305] [24 0] 2 0
s 160.802359461 _3_ AGT  --- 141 tcp 1040 [0 0 0 0] ------- [4194305:0 0:0 32 0] [44 0] 0 0
r 160.8041 0 1 ack 40 ------- 1 0.0.0.0 1.0.1.0 31 140
+ 160.8041 1 2 ack 40 ------- 1 0.0.0.0 1.0.1.0 31 140
- 160.8041 1 2 ack 40 ------- 1 0.0.0.0 1.0.1.0 31 140
r 160.806164 1 2 ack 40 ------- 1 0.0.0.0 1.0.1.0 31 140
+ 160.852614 2 1 tcp 1060 ------- 1 1.0.1.0 0.0.0.0 32 118
- 160.852614 2 1 tcp 1060 ------- 1 1.0.1.0 0.0.0.0 32 118
r 160.85631 2 1 tcp 1060 ------- 1 1.0.1.0 0.0.0.0 32 118
+ 160.85631 1 0 tcp 1060 ------- 1 1.0.1.0 0.0.0.0 32 118
- 160.85631 1 0 tcp 1060 ------- 1 1.0.1.0 0.0.0.0 32 118
r 160.860006 1 0 tcp 1060 ------- 1 1.0.1.0 0.0.0.0 32 118
+ 160.860006 0 1 ack 40 ------- 1 0.0.0.0 1.0.1.0 32 142
- 160.860006 0 1 ack 40 ------- 1 0.0.0.0 1.0.1.0 32 142
r 160.86207 0 1 ack 40 ------- 1 0.0.0.0 1.0.1.0 32 142
+ 160.86207 1 2 ack 40 ------- 1 0.0.0.0 1.0.1.0 32 142
- 160.86207 1 2 ack 40 ------- 1 0.0.0.0 1.0.1.0 32 142
r 160.864134 1 2 ack 40 ------- 1 0.0.0.0 1.0.1.0 32 142
r 160.876618513 _3_ AGT  --- 130 ack 40 [13a 1 2 800] ------- [0:0 4194305:0 28 4194305] [25 0] 2 0
s 160.876618513 _3_ AGT  --- 143 tcp 1040 [0 0 0 0] ------- [4194305:0 0:0 32 0] [45 0] 0 0
r 160.892503000 _3_ AGT  --- 131 ack 40 [13a 1 2 800] ------- [0:0 4194305:0 28 4194305] [26 0] 2 0
s 160.892503000 _3_ AGT  --- 144 tcp 1040 [0 0 0 0] ------- [4194305:0 0:0 32 0] [46 0] 0 0
r 160.904419839 _3_ AGT  --- 132 ack 40 [13a 1 2 800] ------- [0:0 4194305:0 28 4194305] [27 0] 2 0